Title: * C:\projects\ice_ltspice\showfile.asc
Date: Mon Aug 24 19:26:35 2020
Plotname: Operating Point
Flags: real
No. Variables: 6
No. Points:            1
Offset:   0.0000000000000000e+000
Command: Linear Technology Corporation LTspice XVII
Variables:
	0	V(n001)	voltage
	1	V(n002)	voltage
	2	I(R3)	device_current
	3	I(R2)	device_current
	4	I(R1)	device_current
	5	I(V1)	device_current
Values:
0		1.000000000000000e+001
	2.843656450711593e+000
	6.477473827666249e-001
	7.109141126778982e-001
	-1.358661495444523e+000
	-1.358661495444523e+000
