Title: * C:\projects\ice_ltspice\showfile.asc
Date: Tue Aug 25 12:12:32 2020
Plotname: Operating Point
Flags: real
No. Variables: 6
No. Points:            1
Offset:   0.0000000000000000e+000
Command: Linear Technology Corporation LTspice XVII
Variables:
	0	V(n001)	voltage
	1	V(n002)	voltage
	2	I(R3)	device_current
	3	I(R2)	device_current
	4	I(R1)	device_current
	5	I(V1)	device_current
Values:
0		1.000000000000000e+001
	3.991608675267387e+000
	1.004894939427358e+000
	9.979021688168467e-001
	-2.002797108244204e+000
	-2.002797108244204e+000
